LAMMPS (29 Aug 2024 - Development - patch_29Aug2024-239-gfcbc37d5a4)
OMP_NUM_THREADS environment is not set. Defaulting to 1 thread. (src/comm.cpp:98)
  using 1 OpenMP thread(s) per MPI task
units                real
atom_style           full
boundary             p p p
dielectric           1
special_bonds        lj/coul 0.0 0.0 1.0

pair_style           lj/charmm/coul/charmm 13 14.00000
bond_style           none
angle_style          none
dihedral_style       none
improper_style       none
kspace_style         none

read_data            data.lammps
Reading data file ...
  orthogonal box = (10.216811 -9.658189 -1.758189) to (19.283189 -3.391811 1.758189)
  1 by 1 by 1 MPI processor grid
  reading atoms ...
  6 atoms
Finding 1-2 1-3 1-4 neighbors ...
  special bond factors lj:    0        0        1       
  special bond factors coul:  0        0        1       
     0 = max # of 1-2 neighbors
     0 = max # of 1-3 neighbors
     1 = max # of special neighbors
  special bonds CPU = 0.000 seconds
  read_data CPU = 0.004 seconds



pair_modify          mix geometric
neighbor             2.0 multi
neigh_modify         every 2 delay 4 check yes
thermo_style         multi
thermo_modify        line multi format float %14.6f flush yes
variable             input string in.lammps
variable             sname string lammps


timestep             1

print                .
.
print                ==========================================
==========================================
print                "500 steps CG Minimization"
500 steps CG Minimization
print                ==========================================
==========================================
print                .
.

thermo_style         custom step time etotal evdwl ecoul epair ebond eangle edihed eimp emol elong etail enthalpy ecouple econserve ke pe temp press vol density
WARNING: New thermo_style command, previous thermo_modify settings will be lost (src/output.cpp:904)
dump                 1 all custom 10 ${sname}.visualize.lammpstrj id type xu yu zu vx vy vz
dump                 1 all custom 10 lammps.visualize.lammpstrj id type xu yu zu vx vy vz
thermo               10
min_style            sd
minimize             0 1.0e-6 5000 50000

CITE-CITE-CITE-CITE-CITE-CITE-CITE-CITE-CITE-CITE-CITE-CITE-CITE

Your simulation uses code contributions which should be cited:

- Type Label Framework: https://doi.org/10.1021/acs.jpcb.3c08419

@Article{Gissinger24,
 author = {Jacob R. Gissinger, Ilia Nikiforov, Yaser Afshar, Brendon Waters, Moon-ki Choi, Daniel S. Karls, Alexander Stukowski, Wonpil Im, Hendrik Heinz, Axel Kohlmeyer, and Ellad B. Tadmor},
 title = {Type Label Framework for Bonded Force Fields in LAMMPS},
 journal = {J. Phys. Chem. B},
 year =    2024,
 volume =  128,
 number =  13,
 pages =   {3282–-3297}
}

- neighbor multi command: doi:10.1016/j.cpc.2008.03.005, doi:10.1007/s40571-020-00361-2

@Article{Intveld08,
 author =  {in 't Veld, P. J. and S. J.~Plimpton and G. S. Grest},
 title =   {Accurate and Efficient Methods for Modeling Colloidal
            Mixtures in an Explicit Solvent using Molecular Dynamics},
 journal = {Comput.\ Phys.\ Commut.},
 year =    2008,
 volume =  179,
 pages =   {320--329}
}

@article{Shire2020,
 author = {Shire, Tom and Hanley, Kevin J. and Stratford, Kevin},
 title = {{DEM} Simulations of Polydisperse Media: Efficient Contact
          Detection Applied to Investigate the Quasi-Static Limit},
 journal = {Computational Particle Mechanics},
 year = {2020}
@article{Monti2022,
 author = {Monti, Joseph M. and Clemmer, Joel T. and Srivastava, 
           Ishan and Silbert, Leonardo E. and Grest, Gary S. 
           and Lechman, Jeremy B.},
 title = {Large-scale frictionless jamming with power-law particle 
          size distributions},
 journal = {Phys. Rev. E},
 volume = {106}
 issue = {3}
 year = {2022}
}

CITE-CITE-CITE-CITE-CITE-CITE-CITE-CITE-CITE-CITE-CITE-CITE-CITE

Switching to 'neigh_modify every 1 delay 0 check yes' setting during minimization
Generated 0 of 0 mixed pair_coeff terms from geometric mixing rule
Neighbor list info ...
  update: every = 1 steps, delay = 0 steps, check = yes
  max neighbors/atom: 2000, page size: 100000
  master list distance cutoff = 16
  ghost atom cutoff = 16
  binsize = 8, bins = 2 1 1
  1 neighbor lists, perpetual/occasional/extra = 1 0 0
  (1) pair lj/charmm/coul/charmm, perpetual
      attributes: half, newton on
      pair build: half/multi/newton
      stencil: half/multi/3d
      bin: multi
Per MPI rank memory allocation (min/avg/max) = 7.092 | 7.092 | 7.092 Mbytes
   Step          Time          TotEng         E_vdwl         E_coul         E_pair         E_bond        E_angle        E_dihed        E_impro         E_mol          E_long         E_tail        Enthalpy       Ecouple       Econserve        KinEng         PotEng          Temp          Press          Volume        Density    
         0   0              13046.127      13046.127      0              13046.127      0              0              0              0              0              0              0              65665.843      0              13046.127      0              13046.127      0              18060370       199.77722      1.7681021    
        10   10             108.98918      108.98918      0              108.98918      0              0              0              0              0              0              0              652.69108      0              108.98918      0              108.98918      0              186611.76      199.77722      1.7681021    
        20   20             9.9085729      9.9085729      0              9.9085729      0              0              0              0              0              0              0              126.86429      0              9.9085729      0              9.9085729      0              40142.056      199.77722      1.7681021    
        30   30             9.6574203      9.6574203      0              9.6574203      0              0              0              0              0              0              0              125.53095      0              9.6574203      0              9.6574203      0              39770.623      199.77722      1.7681021    
        40   40             9.6148503      9.6148503      0              9.6148503      0              0              0              0              0              0              0              125.30574      0              9.6148503      0              9.6148503      0              39707.937      199.77722      1.7681021    
        50   50             9.5849654      9.5849654      0              9.5849654      0              0              0              0              0              0              0              125.16355      0              9.5849654      0              9.5849654      0              39669.389      199.77722      1.7681021    
        60   60             9.4838183      9.4838183      0              9.4838183      0              0              0              0              0              0              0              124.72128      0              9.4838183      0              9.4838183      0              39552.308      199.77722      1.7681021    
        70   70             9.3668787      9.3668787      0              9.3668787      0              0              0              0              0              0              0              124.20005      0              9.3668787      0              9.3668787      0              39413.544      199.77722      1.7681021    
        80   80             9.3336026      9.3336026      0              9.3336026      0              0              0              0              0              0              0              124.04905      0              9.3336026      0              9.3336026      0              39373.141      199.77722      1.7681021    
        90   90             9.2697446      9.2697446      0              9.2697446      0              0              0              0              0              0              0              123.75871      0              9.2697446      0              9.2697446      0              39295.405      199.77722      1.7681021    
       100   100            9.2532634      9.2532634      0              9.2532634      0              0              0              0              0              0              0              123.68503      0              9.2532634      0              9.2532634      0              39275.774      199.77722      1.7681021    
       110   110            9.2440612      9.2440612      0              9.2440612      0              0              0              0              0              0              0              123.64238      0              9.2440612      0              9.2440612      0              39264.293      199.77722      1.7681021    
       120   120            9.2420484      9.2420484      0              9.2420484      0              0              0              0              0              0              0              123.63292      0              9.2420484      0              9.2420484      0              39261.738      199.77722      1.7681021    
       130   130            9.2418852      9.2418852      0              9.2418852      0              0              0              0              0              0              0              123.63215      0              9.2418852      0              9.2418852      0              39261.531      199.77722      1.7681021    
       140   140            9.2417437      9.2417437      0              9.2417437      0              0              0              0              0              0              0              123.63146      0              9.2417437      0              9.2417437      0              39261.343      199.77722      1.7681021    
       150   150            6.6878087      6.6878087      0              6.6878087      0              0              0              0              0              0              0              109.42389      0              6.6878087      0              6.6878087      0              35261.53       199.77722      1.7681021    
       160   160           -4.0620405     -4.0620405      0             -4.0620405      0              0              0              0              0              0              0              49.220738      0             -4.0620405      0             -4.0620405      0              18287.949      199.77722      1.7681021    
       170   170           -8.4633266     -8.4633266      0             -8.4633266      0              0              0              0              0              0              0              24.625222      0             -8.4633266      0             -8.4633266      0              11356.797      199.77722      1.7681021    
       180   180           -9.0268719     -9.0268719      0             -9.0268719      0              0              0              0              0              0              0              21.488613      0             -9.0268719      0             -9.0268719      0              10473.659      199.77722      1.7681021    
       190   190           -9.052762      -9.052762       0             -9.052762       0              0              0              0              0              0              0              21.348299      0             -9.052762       0             -9.052762       0              10434.386      199.77722      1.7681021    
       200   200           -9.0531737     -9.0531737      0             -9.0531737      0              0              0              0              0              0              0              21.346283      0             -9.0531737      0             -9.0531737      0              10433.835      199.77722      1.7681021    
       210   210           -9.0531794     -9.0531794      0             -9.0531794      0              0              0              0              0              0              0              21.346251      0             -9.0531794      0             -9.0531794      0              10433.826      199.77722      1.7681021    
       220   220           -9.0531795     -9.0531795      0             -9.0531795      0              0              0              0              0              0              0              21.346251      0             -9.0531795      0             -9.0531795      0              10433.826      199.77722      1.7681021    
       230   230           -9.0531795     -9.0531795      0             -9.0531795      0              0              0              0              0              0              0              21.346251      0             -9.0531795      0             -9.0531795      0              10433.826      199.77722      1.7681021    
       240   240           -9.0531795     -9.0531795      0             -9.0531795      0              0              0              0              0              0              0              21.346251      0             -9.0531795      0             -9.0531795      0              10433.826      199.77722      1.7681021    
       244   244           -9.0531795     -9.0531795      0             -9.0531795      0              0              0              0              0              0              0              21.346251      0             -9.0531795      0             -9.0531795      0              10433.826      199.77722      1.7681021    
Loop time of 0.0308605 on 1 procs for 244 steps with 6 atoms

95.5% CPU use with 1 MPI tasks x 1 OpenMP threads

Minimization stats:
  Stopping criterion = force tolerance
  Energy initial, next-to-last, final = 
      13046.1274330852  -9.05317947025017  -9.05317947025022
  Force two-norm initial, final = 108783.12 8.0065257e-07
  Force max component initial, final = 70059.638 4.9142952e-07
  Final line search alpha, max atom move = 1 4.9142952e-07
  Iterations, force evaluations = 244 467

MPI task timing breakdown:
Section |  min time  |  avg time  |  max time  |%varavg| %total
---------------------------------------------------------------
Pair    | 0.021738   | 0.021738   | 0.021738   |   0.0 | 70.44
Bond    | 4.2962e-05 | 4.2962e-05 | 4.2962e-05 |   0.0 |  0.14
Neigh   | 0.00046553 | 0.00046553 | 0.00046553 |   0.0 |  1.51
Comm    | 0.0047662  | 0.0047662  | 0.0047662  |   0.0 | 15.44
Output  | 0.0030197  | 0.0030197  | 0.0030197  |   0.0 |  9.79
Modify  | 0          | 0          | 0          |   0.0 |  0.00
Other   |            | 0.0008281  |            |       |  2.68

Nlocal:              6 ave           6 max           6 min
Histogram: 1 0 0 0 0 0 0 0 0 0
Nghost:           1710 ave        1710 max        1710 min
Histogram: 1 0 0 0 0 0 0 0 0 0
Neighs:           1543 ave        1543 max        1543 min
Histogram: 1 0 0 0 0 0 0 0 0 0

Total # of neighbors = 1543
Ave neighs/atom = 257.16667
Ave special neighs/atom = 0
Neighbor list builds = 2
Dangerous builds = 0
min_style            cg
minimize             0 1.0e-6 5000 50000
Switching to 'neigh_modify every 1 delay 0 check yes' setting during minimization
Generated 0 of 0 mixed pair_coeff terms from geometric mixing rule
Per MPI rank memory allocation (min/avg/max) = 8.342 | 8.342 | 8.342 Mbytes
   Step          Time          TotEng         E_vdwl         E_coul         E_pair         E_bond        E_angle        E_dihed        E_impro         E_mol          E_long         E_tail        Enthalpy       Ecouple       Econserve        KinEng         PotEng          Temp          Press          Volume        Density    
       244   244           -9.0531795     -9.0531795      0             -9.0531795      0              0              0              0              0              0              0              21.346251      0             -9.0531795      0             -9.0531795      0              10433.826      199.77722      1.7681021    
       245   245           -9.0531795     -9.0531795      0             -9.0531795      0              0              0              0              0              0              0              21.346251      0             -9.0531795      0             -9.0531795      0              10433.826      199.77722      1.7681021    
Loop time of 0.000251183 on 1 procs for 1 steps with 6 atoms

99.9% CPU use with 1 MPI tasks x 1 OpenMP threads

Minimization stats:
  Stopping criterion = force tolerance
  Energy initial, next-to-last, final = 
     -9.05317947025022  -9.05317947025022   -9.0531794702502
  Force two-norm initial, final = 8.0065257e-07 6.6727602e-07
  Force max component initial, final = 4.9142952e-07 4.0729142e-07
  Final line search alpha, max atom move = 1 4.0729142e-07
  Iterations, force evaluations = 1 2

MPI task timing breakdown:
Section |  min time  |  avg time  |  max time  |%varavg| %total
---------------------------------------------------------------
Pair    | 0.00015056 | 0.00015056 | 0.00015056 |   0.0 | 59.94
Bond    | 2.63e-07   | 2.63e-07   | 2.63e-07   |   0.0 |  0.10
Neigh   | 0          | 0          | 0          |   0.0 |  0.00
Comm    | 2.6962e-05 | 2.6962e-05 | 2.6962e-05 |   0.0 | 10.73
Output  | 0          | 0          | 0          |   0.0 |  0.00
Modify  | 0          | 0          | 0          |   0.0 |  0.00
Other   |            | 7.339e-05  |            |       | 29.22

Nlocal:              6 ave           6 max           6 min
Histogram: 1 0 0 0 0 0 0 0 0 0
Nghost:           1594 ave        1594 max        1594 min
Histogram: 1 0 0 0 0 0 0 0 0 0
Neighs:           1566 ave        1566 max        1566 min
Histogram: 1 0 0 0 0 0 0 0 0 0

Total # of neighbors = 1566
Ave neighs/atom = 261
Ave special neighs/atom = 0
Neighbor list builds = 0
Dangerous builds = 0
#now                 minimize the entire system
minimize             0 1.0e-6 5000 50000
Switching to 'neigh_modify every 1 delay 0 check yes' setting during minimization
Generated 0 of 0 mixed pair_coeff terms from geometric mixing rule
Per MPI rank memory allocation (min/avg/max) = 8.342 | 8.342 | 8.342 Mbytes
   Step          Time          TotEng         E_vdwl         E_coul         E_pair         E_bond        E_angle        E_dihed        E_impro         E_mol          E_long         E_tail        Enthalpy       Ecouple       Econserve        KinEng         PotEng          Temp          Press          Volume        Density    
       245   245           -9.0531795     -9.0531795      0             -9.0531795      0              0              0              0              0              0              0              21.346251      0             -9.0531795      0             -9.0531795      0              10433.826      199.77722      1.7681021    
       246   246           -9.0531795     -9.0531795      0             -9.0531795      0              0              0              0              0              0              0              21.346251      0             -9.0531795      0             -9.0531795      0              10433.826      199.77722      1.7681021    
Loop time of 0.000178949 on 1 procs for 1 steps with 6 atoms

100.6% CPU use with 1 MPI tasks x 1 OpenMP threads

Minimization stats:
  Stopping criterion = force tolerance
  Energy initial, next-to-last, final = 
      -9.0531794702502   -9.0531794702502  -9.05317947025023
  Force two-norm initial, final = 6.6727602e-07 5.2326703e-07
  Force max component initial, final = 4.0729142e-07 3.2132298e-07
  Final line search alpha, max atom move = 1 3.2132298e-07
  Iterations, force evaluations = 1 2

MPI task timing breakdown:
Section |  min time  |  avg time  |  max time  |%varavg| %total
---------------------------------------------------------------
Pair    | 0.00011226 | 0.00011226 | 0.00011226 |   0.0 | 62.73
Bond    | 2.32e-07   | 2.32e-07   | 2.32e-07   |   0.0 |  0.13
Neigh   | 0          | 0          | 0          |   0.0 |  0.00
Comm    | 2.2241e-05 | 2.2241e-05 | 2.2241e-05 |   0.0 | 12.43
Output  | 0          | 0          | 0          |   0.0 |  0.00
Modify  | 0          | 0          | 0          |   0.0 |  0.00
Other   |            | 4.421e-05  |            |       | 24.71

Nlocal:              6 ave           6 max           6 min
Histogram: 1 0 0 0 0 0 0 0 0 0
Nghost:           1594 ave        1594 max        1594 min
Histogram: 1 0 0 0 0 0 0 0 0 0
Neighs:           1566 ave        1566 max        1566 min
Histogram: 1 0 0 0 0 0 0 0 0 0

Total # of neighbors = 1566
Ave neighs/atom = 261
Ave special neighs/atom = 0
Neighbor list builds = 0
Dangerous builds = 0


print                .
.
print                =====================================
=====================================
print                "NVT dynamics to heat system"
NVT dynamics to heat system
print                =====================================
=====================================
print                .
.

velocity             all create 0.0 12345678 dist uniform
thermo               100
fix                  4 all nvt temp 1.0 ${rtemp} 100.0
fix                  4 all nvt temp 1.0 298 100.0
run                  100000
Generated 0 of 0 mixed pair_coeff terms from geometric mixing rule
Per MPI rank memory allocation (min/avg/max) = 7.217 | 7.217 | 7.217 Mbytes
   Step          Time          TotEng         E_vdwl         E_coul         E_pair         E_bond        E_angle        E_dihed        E_impro         E_mol          E_long         E_tail        Enthalpy       Ecouple       Econserve        KinEng         PotEng          Temp          Press          Volume        Density    
       246   0             -9.0531795     -9.0531795      0             -9.0531795      0              0              0              0              0              0              0              21.346251      0             -9.0531795      0             -9.0531795      0              10433.826      199.77722      1.7681021    
       300   54            -9.0531795     -9.0531795      0             -9.0531795      0              0              0              0              0              0              0              21.346251      6.9582961e-08 -9.0531794      4.5440049e-15 -9.0531795      3.048839e-13   10433.826      199.77722      1.7681021    
       400   154           -9.0531795     -9.0531795      0             -9.0531795      0              0              0              0              0              0              0              21.346251      4.361758e-07  -9.053179       3.0537929e-14 -9.0531795      2.0489685e-12  10433.826      199.77722      1.7681021    
       500   254           -9.0531795     -9.0531795      0             -9.0531795      0              0              0              0              0              0              0              21.346251      9.1648856e-07 -9.0531786      8.5462846e-14 -9.0531795      5.7342028e-12  10433.826      199.77722      1.7681021    
       600   354           -9.0531795     -9.0531795      0             -9.0531795      0              0              0              0              0              0              0              21.346251      1.0925762e-06 -9.0531784      1.2455941e-13 -9.0531795      8.3574202e-12  10433.826      199.77722      1.7681021    
       700   454           -9.0531795     -9.0531795      0             -9.0531795      0              0              0              0              0              0              0              21.346251      1.1775826e-06 -9.0531783      4.7549032e-14 -9.0531795      3.190343e-12   10433.826      199.77722      1.7681021    
       800   554           -9.0531795     -9.0531795      0             -9.0531795      0              0              0              0              0              0              0              21.346251      1.0910754e-06 -9.0531784      5.8629669e-14 -9.0531795      3.9338078e-12  10433.826      199.77722      1.7681021    
       900   654           -9.0531795     -9.0531795      0             -9.0531795      0              0              0              0              0              0              0              21.346251      7.8383583e-07 -9.0531787      1.0067152e-12 -9.0531795      6.7546419e-11  10433.826      199.77722      1.7681021    
      1000   754           -9.0531795     -9.0531795      0             -9.0531795      0              0              0              0              0              0              0              21.346251      2.1076346e-07 -9.0531793      3.6571588e-12 -9.0531795      2.453802e-10   10433.826      199.77722      1.7681021    
      1100   854           -9.0531795     -9.0531795      0             -9.0531795      0              0              0              0              0              0              0              21.346251     -6.7049191e-07 -9.0531801      7.1660364e-12 -9.0531795      4.8081134e-10  10433.826      199.77722      1.7681021    
      1200   954           -9.0531795     -9.0531795      0             -9.0531795      0              0              0              0              0              0              0              21.346251     -1.8995647e-06 -9.0531814      7.4773958e-12 -9.0531795      5.0170227e-10  10433.826      199.77722      1.7681021    
      1300   1054          -9.0531795     -9.0531795      0             -9.0531795      0              0              0              0              0              0              0              21.346251     -3.5135584e-06 -9.053183       1.7465706e-12 -9.0531795      1.1718765e-10  10433.826      199.77722      1.7681021    
      1400   1154          -9.0531795     -9.0531795      0             -9.0531795      0              0              0              0              0              0              0              21.346251     -5.5472414e-06 -9.053185       3.0249516e-11 -9.0531795      2.0296171e-09  10433.826      199.77722      1.7681021    
      1500   1254          -9.0531795     -9.0531795      0             -9.0531795      0              0              0              0              0              0              0              21.346251     -8.0332965e-06 -9.0531875      2.274791e-10  -9.0531795      1.5262905e-08  10433.826      199.77722      1.7681021    
      1600   1354          -9.0531795     -9.0531795      0             -9.0531795      0              0              0              0              0              0              0              21.346251     -1.1002531e-05 -9.0531905      6.5116095e-10 -9.0531795      4.3690201e-08  10433.826      199.77722      1.7681021    
      1700   1454          -9.0531795     -9.0531795      0             -9.0531795      0              0              0              0              0              0              0              21.346251     -1.4483738e-05 -9.053194       9.455208e-10  -9.0531795      6.3440527e-08  10433.826      199.77722      1.7681021    
      1800   1554          -9.0531795     -9.0531795      0             -9.0531795      0              0              0              0              0              0              0              21.346251     -1.8502848e-05 -9.053198       6.6394596e-10 -9.0531795      4.4548022e-08  10433.826      199.77722      1.7681021    
      1900   1654          -9.0531795     -9.0531795      0             -9.0531795      0              0              0              0              0              0              0              21.346251     -2.3083536e-05 -9.0532025      9.4491018e-10 -9.0531795      6.3399557e-08  10433.826      199.77722      1.7681021    
      2000   1754          -9.0531795     -9.0531795      0             -9.0531795      0              0              0              0              0              0              0              21.346251     -2.8257709e-05 -9.0532077      1.0691389e-08 -9.0531795      7.1734789e-07  10433.826      199.77722      1.7681021    
      2100   1854          -9.0531794     -9.0531795      0             -9.0531795      0              0              0              0              0              0              0              21.346251     -3.408784e-05  -9.0532135      5.5630763e-08 -9.0531795      3.7325936e-06  10433.826      199.77722      1.7681021    
      2200   1954          -9.0531792     -9.0531794      0             -9.0531794      0              0              0              0              0              0              0              21.346251     -4.0667308e-05 -9.0532199      1.4253261e-07 -9.0531794      9.5633472e-06  10433.826      199.77722      1.7681021    
      2300   2054          -9.0531789     -9.0531791      0             -9.0531791      0              0              0              0              0              0              0              21.346253     -4.8041071e-05 -9.053227       1.6950411e-07 -9.0531791      1.1373023e-05  10433.827      199.77722      1.7681021    
      2400   2154          -9.0531786     -9.0531787      0             -9.0531787      0              0              0              0              0              0              0              21.346255     -5.6056827e-05 -9.0532347      6.9304769e-08 -9.0531787      4.6500628e-06  10433.827      199.77722      1.7681021    
      2500   2254          -9.0531785     -9.0531789      0             -9.0531789      0              0              0              0              0              0              0              21.346255     -6.467257e-05  -9.0532431      4.2310746e-07 -9.0531789      2.8388757e-05  10433.827      199.77722      1.7681021    
      2600   2354          -9.0531756     -9.0531792      0             -9.0531792      0              0              0              0              0              0              0              21.346258     -7.6671561e-05 -9.0532523      3.5467085e-06 -9.0531792      0.00023796944  10433.827      199.77722      1.7681021    
      2700   2454          -9.0531592     -9.0531742      0             -9.0531742      0              0              0              0              0              0              0              21.346305     -0.00010327785 -9.0532625      1.5040369e-05 -9.0531742      0.0010091464   10433.838      199.77722      1.7681021    
      2800   2554          -9.0531124     -9.0531488      0             -9.0531488      0              0              0              0              0              0              0              21.346485     -0.00016200804 -9.0532745      3.633372e-05  -9.0531488      0.0024378421   10433.883      199.77722      1.7681021    
      2900   2654          -9.0530381     -9.0530771      0             -9.0530771      0              0              0              0              0              0              0              21.346856     -0.00025129679 -9.0532894      3.9016932e-05 -9.0530771      0.0026178744   10433.985      199.77722      1.7681021    
      3000   2754          -9.0529816     -9.052988       0             -9.052988       0              0              0              0              0              0              0              21.347242     -0.00032580377 -9.0533074      6.3869669e-06 -9.052988       0.000428539    10434.098      199.77722      1.7681021    
      3100   2854          -9.0528985     -9.0530603      0             -9.0530603      0              0              0              0              0              0              0              21.347142     -0.00042891376 -9.0533275      0.00016180486 -9.0530603      0.010856436    10434.036      199.77722      1.7681021    
      3200   2954          -9.0518964     -9.0531142      0             -9.0531142      0              0              0              0              0              0              0              21.348636     -0.0014644867  -9.0533609      0.0012177758  -9.0531142      0.081707708    10434.204      199.77722      1.7681021    
      3300   3054          -9.046731      -9.0512269      0             -9.0512269      0              0              0              0              0              0              0              21.363884     -0.0067457122  -9.0534767      0.0044959202  -9.0512269      0.30165761     10437.665      199.77722      1.7681021    
      3400   3154          -9.0327467     -9.0432329      0             -9.0432329      0              0              0              0              0              0              0              21.416188     -0.021112614   -9.0538593      0.010486147   -9.0432329      0.70357702     10450.817      199.77722      1.7681021    
      3500   3254          -9.0112095     -9.0236778      0             -9.0236778      0              0              0              0              0              0              0              21.526225     -0.043560568   -9.0547701      0.012468261   -9.0236778      0.83656866     10481.193      199.77722      1.7681021    
      3600   3354          -8.9934127     -8.9960128      0             -8.9960128      0              0              0              0              0              0              0              21.663535     -0.062869184   -9.0562819      0.0026000603  -8.9960128      0.17445327     10522.212      199.77722      1.7681021    
      3700   3454          -8.9760372     -9.0024399      0             -9.0024399      0              0              0              0              0              0              0              21.667914     -0.082083492   -9.0581207      0.026402703   -9.0024399      1.7715119      10517.752      199.77722      1.7681021    
      3800   3554          -8.8293666     -9.0490915      0             -9.0490915      0              0              0              0              0              0              0              21.735661     -0.23225524    -9.0616218      0.21972489    -9.0490915      14.742629      10490.663      199.77722      1.7681021    
      3900   3654          -8.665321      -8.8829003      0             -8.8829003      0              0              0              0              0              0              0              22.648804     -0.40513111    -9.0704521      0.21757929    -8.8829003      14.598668      10747.771      199.77722      1.7681021    
      4000   3754          -8.6582563     -8.6994534      0             -8.6994534      0              0              0              0              0              0              0              23.366324     -0.42235197    -9.0806082      0.041197137   -8.6994534      2.7641572      10991.617      199.77722      1.7681021    
      4100   3854          -8.5617207     -8.8205714      0             -8.8205714      0              0              0              0              0              0              0              23.068705     -0.5297561     -9.0914768      0.25885073    -8.8205714      17.367811      10856.334      199.77722      1.7681021    
      4200   3954          -8.5855743     -8.9756185      0             -8.9756185      0              0              0              0              0              0              0              22.445962     -0.52025567    -9.1058299      0.39004425    -8.9756185      26.170352      10650.78       199.77722      1.7681021    
      4300   4054          -8.8673289     -8.9371392      0             -8.9371392      0              0              0              0              0              0              0              22.111762     -0.24635945    -9.1136883      0.069810349   -8.9371392      4.6839851      10632.78       199.77722      1.7681021    
      4400   4154          -8.8645037     -8.9297505      0             -8.9297505      0              0              0              0              0              0              0              22.148487     -0.25466028    -9.1191639      0.065246871   -8.9297505      4.3777946      10644.415      199.77722      1.7681021    
      4500   4254          -8.8124116     -8.9265752      0             -8.9265752      0              0              0              0              0              0              0              22.25893      -0.31287075    -9.1252824      0.1141636     -8.9265752      7.6599041      10664.442      199.77722      1.7681021    
      4600   4354          -8.6128644     -8.8736813      0             -8.8736813      0              0              0              0              0              0              0              22.835748     -0.52169659    -9.134561       0.26081689    -8.8736813      17.499732      10793.931      199.77722      1.7681021    
      4700   4454          -8.6413534     -8.9140762      0             -8.9140762      0              0              0              0              0              0              0              22.566784     -0.50447241    -9.1458258      0.27272281    -8.9140762      18.29857       10711.394      199.77722      1.7681021    
      4800   4554          -8.6859628     -8.7817443      0             -8.7817443      0              0              0              0              0              0              0              23.038056     -0.46961148    -9.1555743      0.095781503   -8.7817443      6.4265419      10888.457      199.77722      1.7681021    
      4900   4654          -8.5770736     -8.8111109      0             -8.8111109      0              0              0              0              0              0              0              23.104636     -0.58892477    -9.1659983      0.2340373     -8.8111109      15.702933      10873.936      199.77722      1.7681021    
      5000   4754          -8.5558764     -8.8403177      0             -8.8403177      0              0              0              0              0              0              0              23.080638     -0.62312408    -9.1790005      0.28444132    -8.8403177      19.084833      10858.423      199.77722      1.7681021    
      5100   4854          -8.727923      -8.9741161      0             -8.9741161      0              0              0              0              0              0              0              22.195444     -0.46169876    -9.1896218      0.24619308    -8.9741161      16.518535      10613.654      199.77722      1.7681021    
      5200   4954          -8.7686148     -8.8105839      0             -8.8105839      0              0              0              0              0              0              0              22.822036     -0.42920814    -9.1978229      0.041969105   -8.8105839      2.815953       10842.682      199.77722      1.7681021    
      5300   5054          -8.6339932     -8.7969695      0             -8.7969695      0              0              0              0              0              0              0              23.079233     -0.57311657    -9.2071098      0.16297632    -8.7969695      10.935035      10884.753      199.77722      1.7681021    
      5400   5154          -8.5488593     -8.9842954      0             -8.9842954      0              0              0              0              0              0              0              22.479082     -0.66968081    -9.2185401      0.4354361     -8.9842954      29.215958      10649.546      199.77722      1.7681021    
      5500   5254          -8.6535773     -8.8724456      0             -8.8724456      0              0              0              0              0              0              0              22.756334     -0.57619016    -9.2297675      0.21886823    -8.8724456      14.685151      10780.648      199.77722      1.7681021    
      5600   5354          -8.6795559     -8.7682926      0             -8.7682926      0              0              0              0              0              0              0              23.099633     -0.56010252    -9.2396584      0.088736736   -8.7682926      5.9538672      10907.393      199.77722      1.7681021    
      5700   5454          -8.4470462     -8.7163302      0             -8.7163302      0              0              0              0              0              0              0              23.740662     -0.80402756    -9.2510738      0.26928391    -8.7163302      18.067835      11047.607      199.77722      1.7681021    
      5800   5554          -8.418753      -9.0238983      0             -9.0238983      0              0              0              0              0              0              0              22.524073     -0.84706385    -9.2658168      0.60514535    -9.0238983      40.602745      10620.333      199.77722      1.7681021    
      5900   5654          -8.6409532     -8.7571628      0             -8.7571628      0              0              0              0              0              0              0              23.269259     -0.63657275    -9.277526       0.11620953    -8.7571628      7.797178       10952.363      199.77722      1.7681021    
      6000   5754          -8.6192295     -8.7424276      0             -8.7424276      0              0              0              0              0              0              0              23.310265     -0.66907435    -9.2883039      0.12319811    -8.7424276      8.2660824      10958.981      199.77722      1.7681021    
      6100   5854          -8.46468       -8.8905355      0             -8.8905355      0              0              0              0              0              0              0              22.964992     -0.83532946    -9.3000094      0.42585552    -8.8905355      28.573141      10787.43       199.77722      1.7681021    
      6200   5954          -8.4012266     -8.8150626      0             -8.8150626      0              0              0              0              0              0              0              23.443193     -0.91300678    -9.3142334      0.41383596    -8.8150626      27.766678      10929.782      199.77722      1.7681021    
      6300   6054          -8.5750999     -8.7515789      0             -8.7515789      0              0              0              0              0              0              0              23.37921      -0.75234792    -9.3274478      0.17647905    -8.7515789      11.841013      10967.498      199.77722      1.7681021    
      6400   6154          -8.6339217     -8.7989492      0             -8.7989492      0              0              0              0              0              0              0              23.07485      -0.70480841    -9.3387301      0.16502749    -8.7989492      11.072661      10883.224      199.77722      1.7681021    
      6500   6254          -8.5356529     -8.9678843      0             -8.9678843      0              0              0              0              0              0              0              22.539853     -0.81427781    -9.3499307      0.43223132    -8.9678843      29.00093       10665.872      199.77722      1.7681021    
      6600   6354          -8.4738238     -8.6888318      0             -8.6888318      0              0              0              0              0              0              0              23.849849     -0.88910734    -9.3629312      0.21500799    -8.6888318      14.426145      11094.273      199.77722      1.7681021    
      6700   6454          -8.5510264     -8.7584586      0             -8.7584586      0              0              0              0              0              0              0              23.391236     -0.82504936    -9.3760757      0.20743224    -8.7584586      13.917843      10963.363      199.77722      1.7681021    
      6800   6554          -8.5225599     -8.8940106      0             -8.8940106      0              0              0              0              0              0              0              22.855969     -0.86564354    -9.3882034      0.3714507     -8.8940106      24.922802      10769.877      199.77722      1.7681021    
      6900   6654          -8.4056779     -8.728046       0             -8.728046       0              0              0              0              0              0              0              23.797461     -0.99568856    -9.4013664      0.32236813    -8.728046       21.629565      11052.903      199.77722      1.7681021    
      7000   6754          -8.1804596     -8.52434        0             -8.52434        0              0              0              0              0              0              0              24.996037     -1.2373446     -9.4178042      0.34388036    -8.52434        23.072947      11386.983      199.77722      1.7681021    
      7100   6854          -8.4471661     -8.7551254      0             -8.7551254      0              0              0              0              0              0              0              23.610879     -0.98695721    -9.4341233      0.30795933    -8.7551254      20.662795      11003.103      199.77722      1.7681021    
      7200   6954          -8.4656967     -8.942072       0             -8.942072       0              0              0              0              0              0              0              22.758367     -0.98181458    -9.4475112      0.47637537    -8.942072       31.962813      10716.86       199.77722      1.7681021    
      7300   7054          -8.4948773     -8.6390922      0             -8.6390922      0              0              0              0              0              0              0              24.002217     -0.96571543    -9.4605927      0.14421487    -8.6390922      9.6762197      11153.795      199.77722      1.7681021    
      7400   7154          -8.3680757     -8.6816414      0             -8.6816414      0              0              0              0              0              0              0              24.041774     -1.1067611     -9.4748368      0.31356563    -8.6816414      21.038954      11123.851      199.77722      1.7681021    
      7500   7254          -8.3590416     -8.8899859      0             -8.8899859      0              0              0              0              0              0              0              23.186945     -1.1306246     -9.4896662      0.53094432    -8.8899859      35.624163      10827.352      199.77722      1.7681021    
      7600   7354          -8.5145878     -8.8050798      0             -8.8050798      0              0              0              0              0              0              0              23.290523     -0.98893122    -9.503519       0.29049198    -8.8050798      19.490808      10916.29       199.77722      1.7681021    
      7700   7454          -8.6317548     -8.7629308      0             -8.7629308      0              0              0              0              0              0              0              23.248591     -0.88361361    -9.5153684      0.13117599    -8.7629308      8.8013653      10942.112      199.77722      1.7681021    
      7800   7554          -8.5334673     -8.7882949      0             -8.7882949      0              0              0              0              0              0              0              23.325091     -0.99367789    -9.5271452      0.25482756    -8.7882949      17.097873      10934.634      199.77722      1.7681021    
      7900   7654          -8.2167476     -8.9862741      0             -8.9862741      0              0              0              0              0              0              0              23.009917     -1.3245705     -9.5413181      0.76952647    -8.9862741      51.632037      10717.753      199.77722      1.7681021    
      8000   7754          -8.2810678     -8.5102595      0             -8.5102595      0              0              0              0              0              0              0              24.873355     -1.2763337     -9.5574015      0.22919174    -8.5102595      15.377816      11379.406      199.77722      1.7681021    
      8100   7854          -8.30025       -8.5163951      0             -8.5163951      0              0              0              0              0              0              0              24.769986     -1.2730166     -9.5732666      0.21614514    -8.5163951      14.502443      11350.512      199.77722      1.7681021    
      8200   7954          -8.2564468     -8.8791523      0             -8.8791523      0              0              0              0              0              0              0              23.390301     -1.3325497     -9.5889965      0.62270548    -8.8791523      41.780957      10861.936      199.77722      1.7681021    
      8300   8054          -8.4818171     -8.890023       0             -8.890023       0              0              0              0              0              0              0              22.985116     -1.1220991     -9.6039161      0.40820596    -8.890023       27.388928      10800.219      199.77722      1.7681021    
      8400   8154          -8.6801881     -8.7687931      0             -8.7687931      0              0              0              0              0              0              0              23.133282     -0.93544691    -9.615635       0.088604943   -8.7687931      5.9450244      10919.159      199.77722      1.7681021    
      8500   8254          -8.5693388     -8.7596455      0             -8.7596455      0              0              0              0              0              0              0              23.341099     -1.057782      -9.6271208      0.19030677    -8.7596455      12.768795      10952.441      199.77722      1.7681021    
      8600   8354          -8.4197889     -8.9907591      0             -8.9907591      0              0              0              0              0              0              0              22.647542     -1.2203335     -9.6401224      0.5709702     -8.9907591      38.309734      10663.066      199.77722      1.7681021    
      8700   8454          -8.3861049     -8.701359       0             -8.701359       0              0              0              0              0              0              0              23.93499      -1.2682081     -9.6543131      0.31525411    -8.701359       21.152244      11093.388      199.77722      1.7681021    
      8800   8554          -8.3574795     -8.589261       0             -8.589261       0              0              0              0              0              0              0              24.408511     -1.3117547     -9.6692342      0.23178156    -8.589261       15.551582      11246.087      199.77722      1.7681021    
      8900   8654          -8.2661646     -8.8024117      0             -8.8024117      0              0              0              0              0              0              0              23.652329     -1.418091      -9.6842556      0.53624714    -8.8024117      35.97996       10955.206      199.77722      1.7681021    
      9000   8754          -8.0152991     -8.7627464      0             -8.7627464      0              0              0              0              0              0              0              24.282256     -1.6856468     -9.7009459      0.74744723    -8.7627464      50.150611      11085.309      199.77722      1.7681021    
      9100   8854          -8.0355207     -8.4344892      0             -8.4344892      0              0              0              0              0              0              0              25.610418     -1.6846926     -9.7202133      0.39896851    -8.4344892      26.769134      11548.107      199.77722      1.7681021    
      9200   8954          -8.4862248     -8.6735288      0             -8.6735288      0              0              0              0              0              0              0              23.849919     -1.2498474     -9.7360723      0.18730393    -8.6735288      12.567318      11098.553      199.77722      1.7681021    
      9300   9054          -8.4286537     -8.9774463      0             -8.9774463      0              0              0              0              0              0              0              22.68207      -1.3210069     -9.7496606      0.5487926     -8.9774463      36.821709      10677.959      199.77722      1.7681021    
      9400   9154          -8.3506226     -8.7354692      0             -8.7354692      0              0              0              0              0              0              0              23.856931     -1.4133441     -9.7639667      0.38484658    -8.7354692      25.82161       11054.418      199.77722      1.7681021    
      9500   9254          -8.1925051     -8.4874158      0             -8.4874158      0              0              0              0              0              0              0              25.130059     -1.5876906     -9.7801957      0.2949107     -8.4874158      19.787286      11437.117      199.77722      1.7681021    
      9600   9354          -8.2625345     -8.7435557      0             -8.7435557      0              0              0              0              0              0              0              23.93093      -1.5341947     -9.7967292      0.48102114    -8.7435557      32.274525      11049.582      199.77722      1.7681021    
      9700   9454          -8.4885899     -8.87938        0             -8.87938        0              0              0              0              0              0              0              22.985635     -1.3228604     -9.8114503      0.39079006    -8.87938        26.220394      10802.722      199.77722      1.7681021    
      9800   9554          -8.6129505     -8.7830663      0             -8.7830663      0              0              0              0              0              0              0              23.198482     -1.2110192     -9.8239697      0.17011577    -8.7830663      11.414063      10918.46       199.77722      1.7681021    
      9900   9654          -8.4339089     -8.7028979      0             -8.7028979      0              0              0              0              0              0              0              23.855571     -1.4030875     -9.8369965      0.268989      -8.7028979      18.048047      11082.537      199.77722      1.7681021    
     10000   9754          -8.0915854     -8.9589451      0             -8.9589451      0              0              0              0              0              0              0              23.312563     -1.7608899     -9.8524753      0.86735969    -8.9589451      58.196241      10778.67       199.77722      1.7681021    
     10100   9854          -8.0922838     -8.548227       0             -8.548227       0              0              0              0              0              0              0              25.049058     -1.7774383     -9.8697221      0.45594325    -8.548227       30.591903      11374.917      199.77722      1.7681021    
     10200   9954          -8.0683726     -8.3013451      0             -8.3013451      0              0              0              0              0              0              0              26.035959     -1.8191064     -9.887479       0.23297249    -8.3013451      15.631489      11705.438      199.77722      1.7681021    
     10300   10054         -8.1129122     -8.6496511      0             -8.6496511      0              0              0              0              0              0              0              24.57203      -1.7923968     -9.9053089      0.53673899    -8.6496511      36.012962      11218.27       199.77722      1.7681021    
     10400   10154         -8.4284377     -8.9945571      0             -8.9945571      0              0              0              0              0              0              0              22.640863     -1.4928893     -9.921327       0.56611935    -8.9945571      37.984262      10663.742      199.77722      1.7681021    
     10500   10254         -8.5954195     -8.8143606      0             -8.8143606      0              0              0              0              0              0              0              23.087047     -1.3388569     -9.9342764      0.21894104    -8.8143606      14.690036      10874.195      199.77722      1.7681021    
     10600   10354         -8.4855225     -8.5763309      0             -8.5763309      0              0              0              0              0              0              0              24.252727     -1.4618942     -9.9474168      0.09080831    -8.5763309      6.0928612      11236.566      199.77722      1.7681021    
     10700   10454         -8.3375053     -8.9819055      0             -8.9819055      0              0              0              0              0              0              0              22.821006     -1.6241662     -9.9616716      0.64440018    -8.9819055      43.236582      10694.361      199.77722      1.7681021    
     10800   10554         -8.2554424     -8.8272064      0             -8.8272064      0              0              0              0              0              0              0              23.633681     -1.7214716     -9.9769139      0.57176398    -8.8272064      38.362994      10945.125      199.77722      1.7681021    
     10900   10654         -8.1758427     -8.4397672      0             -8.4397672      0              0              0              0              0              0              0              25.317736     -1.8174542     -9.9932969      0.26392452    -8.4397672      17.708242      11495.813      199.77722      1.7681021    
     11000   10754         -8.0085149     -8.4891376      0             -8.4891376      0              0              0              0              0              0              0              25.370511     -2.0020537     -10.010569      0.48062274    -8.4891376      32.247794      11456.496      199.77722      1.7681021    
     11100   10854         -7.6474634     -8.8060922      0             -8.8060922      0              0              0              0              0              0              0              24.734676     -2.382303      -10.029766      1.1586288     -8.8060922      77.739188      11114.34       199.77722      1.7681021    
     11200   10954         -7.8913177     -8.7438711      0             -8.7438711      0              0              0              0              0              0              0              24.574088     -2.1590011     -10.050319      0.85255338    -8.7438711      57.202798      11142.919      199.77722      1.7681021    
     11300   11054         -8.4878317     -8.5942532      0             -8.5942532      0              0              0              0              0              0              0              24.208939     -1.5780374     -10.065869      0.10642158    -8.5942532      7.1404471      11222.329      199.77722      1.7681021    
     11400   11154         -8.3748855     -8.8494923      0             -8.8494923      0              0              0              0              0              0              0              23.304145     -1.7052164     -10.080102      0.47460678    -8.8494923      31.844148      10873.016      199.77722      1.7681021    
     11500   11254         -8.1410889     -8.8604908      0             -8.8604908      0              0              0              0              0              0              0              23.674328     -1.9545089     -10.095598      0.71940188    -8.8604908      48.268884      10919.827      199.77722      1.7681021    
     11600   11354         -7.9593027     -8.5129506      0             -8.5129506      0              0              0              0              0              0              0              25.421082     -2.1541989     -10.113502      0.55364788    -8.5129506      37.147478      11456.962      199.77722      1.7681021    
     11700   11454         -8.1473263     -8.4562899      0             -8.4562899      0              0              0              0              0              0              0              25.336862     -1.9841793     -10.131506      0.30896363    -8.4562899      20.730179      11492.59       199.77722      1.7681021    
     11800   11554         -8.3488778     -8.9178041      0             -8.9178041      0              0              0              0              0              0              0              23.090555     -1.7988953     -10.147773      0.56892632    -8.9178041      38.172598      10790.78       199.77722      1.7681021    
     11900   11654         -8.5448267     -8.8979505      0             -8.8979505      0              0              0              0              0              0              0              22.839964     -1.6172111     -10.162038      0.3531238     -8.8979505      23.693144      10772.026      199.77722      1.7681021    
     12000   11754         -8.7816893     -8.8425797      0             -8.8425797      0              0              0              0              0              0              0              22.673611     -1.3924542     -10.174144      0.060890408   -8.8425797      4.085494       10796.226      199.77722      1.7681021    
     12100   11854         -8.6597156     -8.9076463      0             -8.9076463      0              0              0              0              0              0              0              22.608032     -1.52627       -10.185986      0.24793074    -8.9076463      16.635125      10731.854      199.77722      1.7681021    
     12200   11954         -8.4879282     -8.928181       0             -8.928181       0              0              0              0              0              0              0              22.812713     -1.7112072     -10.199135      0.44025284    -8.928181       29.539141      10743.144      199.77722      1.7681021    
     12300   12054         -8.2784754     -8.6563163      0             -8.6563163      0              0              0              0              0              0              0              24.259444     -1.9353993     -10.213875      0.37784091    -8.6563163      25.351559      11167.808      199.77722      1.7681021    
     12400   12154         -7.9721207     -8.3486995      0             -8.3486995      0              0              0              0              0              0              0              26.049566     -2.2588102     -10.230931      0.37657872    -8.3486995      25.266871      11677.073      199.77722      1.7681021    
     12500   12254         -7.8371248     -8.8628405      0             -8.8628405      0              0              0              0              0              0              0              24.163673     -2.4127705     -10.249895      1.0257158     -8.8628405      68.821278      10983.454      199.77722      1.7681021    
     12600   12354         -8.1387431     -8.822389       0             -8.822389       0              0              0              0              0              0              0              23.844004     -2.1289037     -10.267647      0.68364582    -8.822389       45.869801      10977.259      199.77722      1.7681021    
     12700   12454         -8.4204985     -8.5794099      0             -8.5794099      0              0              0              0              0              0              0              24.342521     -1.8625053     -10.283004      0.15891132    -8.5794099      10.662291      11245.068      199.77722      1.7681021    
     12800   12554         -8.2828482     -8.7150294      0             -8.7150294      0              0              0              0              0              0              0              24.024151     -2.0150553     -10.297904      0.43218118    -8.7150294      28.997566      11088.55       199.77722      1.7681021    
     12900   12654         -7.4814951     -8.8053632      0             -8.8053632      0              0              0              0              0              0              0              25.042843     -2.8347889     -10.316284      1.3238681     -8.8053632      88.826065      11163.146      199.77722      1.7681021    
     13000   12754         -7.7899542     -8.6746689      0             -8.6746689      0              0              0              0              0              0              0              24.996662     -2.5470546     -10.337009      0.88471471    -8.6746689      59.36069       11253.166      199.77722      1.7681021    
     13100   12854         -8.2873043     -8.4860212      0             -8.4860212      0              0              0              0              0              0              0              24.966184     -2.0667801     -10.354084      0.19871697    -8.4860212      13.333085      11413.408      199.77722      1.7681021    
     13200   12954         -8.2687592     -8.8503402      0             -8.8503402      0              0              0              0              0              0              0              23.48615      -2.1010437     -10.369803      0.58158104    -8.8503402      39.021677      10899.059      199.77722      1.7681021    
     13300   13054         -8.0733802     -8.8716013      0             -8.8716013      0              0              0              0              0              0              0              23.760936     -2.3125869     -10.385967      0.79822109    -8.8716013      53.557327      10926.314      199.77722      1.7681021    
     13400   13154         -7.7721061     -8.3187261      0             -8.3187261      0              0              0              0              0              0              0              26.486651     -2.6326134     -10.404719      0.54662003    -8.3187261      36.675939      11758.441      199.77722      1.7681021    
     13500   13254         -7.7970713     -8.4025529      0             -8.4025529      0              0              0              0              0              0              0              26.089375     -2.6275369     -10.424608      0.60548167    -8.4025529      40.62531       11630.655      199.77722      1.7681021    
     13600   13354         -8.2115558     -8.8071831      0             -8.8071831      0              0              0              0              0              0              0              23.778008     -2.2310658     -10.442622      0.59562735    -8.8071831      39.964126      10979.599      199.77722      1.7681021    
     13700   13454         -8.3454268     -8.8425365      0             -8.8425365      0              0              0              0              0              0              0              23.385823     -2.1126677     -10.458095      0.49710975    -8.8425365      33.354004      10890.939      199.77722      1.7681021    
     13800   13554         -8.2344431     -8.5415618      0             -8.5415618      0              0              0              0              0              0              0              24.853323     -2.2393179     -10.473761      0.30711875    -8.5415618      20.606395      11356.529      199.77722      1.7681021    
     13900   13654         -7.5716757     -8.6171123      0             -8.6171123      0              0              0              0              0              0              0              25.584091     -2.9203534     -10.492029      1.0454366     -8.6171123      70.144463      11379.868      199.77722      1.7681021    
     14000   13754         -7.4994391     -8.4854347      0             -8.4854347      0              0              0              0              0              0              0              26.235539     -3.0137305     -10.51317       0.98599559    -8.4854347      66.156217      11578.667      199.77722      1.7681021    
     14100   13854         -7.6915695     -8.1892589      0             -8.1892589      0              0              0              0              0              0              0              27.066357     -2.8421973     -10.533767      0.49768934    -8.1892589      33.392892      11929.768      199.77722      1.7681021    
     14200   13954         -7.9197032     -8.6746229      0             -8.6746229      0              0              0              0              0              0              0              24.803203     -2.6335298     -10.553233      0.75491966    -8.6746229      50.65198       11231.299      199.77722      1.7681021    
     14300   14054         -8.1040066     -8.8845987      0             -8.8845987      0              0              0              0              0              0              0              23.635436     -2.467141      -10.571148      0.78059211    -8.8845987      52.374495      10893.751      199.77722      1.7681021    
     14400   14154         -8.1846866     -8.6185888      0             -8.6185888      0              0              0              0              0              0              0              24.522343     -2.4030437     -10.58773       0.43390226    -8.6185888      29.113043      11225.85       199.77722      1.7681021    
     14500   14254         -7.9164448     -8.2061448      0             -8.2061448      0              0              0              0              0              0              0              26.657083     -2.6887313     -10.605176      0.28970002    -8.2061448      19.437671      11866.478      199.77722      1.7681021    
     14600   14354         -7.5356131     -8.5700749      0             -8.5700749      0              0              0              0              0              0              0              25.861553     -3.089558      -10.625171      1.0344618     -8.5700749      69.408098      11462.722      199.77722      1.7681021    
     14700   14454         -7.8219494     -8.978203       0             -8.978203       0              0              0              0              0              0              0              23.720752     -2.8235573     -10.645507      1.1562537     -8.978203       77.579829      10826.225      199.77722      1.7681021    
     14800   14554         -8.2725768     -8.5950112      0             -8.5950112      0              0              0              0              0              0              0              24.527734     -2.3898425     -10.662419      0.32243442    -8.5950112      21.634013      11257.867      199.77722      1.7681021    
     14900   14654         -8.1884495     -8.5507801      0             -8.5507801      0              0              0              0              0              0              0              24.83431      -2.4902467     -10.678696      0.3623306     -8.5507801      24.310881      11334.217      199.77722      1.7681021    
     15000   14754         -7.909699      -8.8073655      0             -8.8073655      0              0              0              0              0              0              0              24.288612     -2.7863806     -10.69608       0.89766648    -8.8073655      60.229701      11051.246      199.77722      1.7681021    
     15100   14854         -7.7919287     -8.7809495      0             -8.7809495      0              0              0              0              0              0              0              24.567006     -2.9230116     -10.71494       0.98902082    -8.7809495      66.359198      11106.376      199.77722      1.7681021    
     15200   14954         -8.0172771     -8.3197859      0             -8.3197859      0              0              0              0              0              0              0              26.133152     -2.716143      -10.73342       0.30250873    -8.3197859      20.297082      11721.26       199.77722      1.7681021    
     15300   15054         -8.0682324     -8.7703586      0             -8.7703586      0              0              0              0              0              0              0              24.154368     -2.6829821     -10.751214      0.70212623    -8.7703586      47.10976       11059.582      199.77722      1.7681021    
     15400   15154         -8.342125      -8.8444053      0             -8.8444053      0              0              0              0              0              0              0              23.405345     -2.4257785     -10.767904      0.50228022    -8.8444053      33.700921      10896.506      199.77722      1.7681021    
     15500   15254         -8.5349108     -8.7499191      0             -8.7499191      0              0              0              0              0              0              0              23.460938     -2.2477137     -10.782624      0.21500837    -8.7499191      14.42617       10981.756      199.77722      1.7681021    
     15600   15354         -8.2259912     -8.7199398      0             -8.7199398      0              0              0              0              0              0              0              24.107337     -2.571779      -10.79777       0.49394855    -8.7199398      33.141901      11097.587      199.77722      1.7681021    
     15700   15454         -7.8170368     -8.691487       0             -8.691487       0              0              0              0              0              0              0              24.893495     -2.9984585     -10.815495      0.87445015    -8.691487       58.671981      11227.052      199.77722      1.7681021    
     15800   15554         -7.6434997     -8.4919332      0             -8.4919332      0              0              0              0              0              0              0              25.90462      -3.1914394     -10.834939      0.84843355    -8.4919332      56.926375      11514.533      199.77722      1.7681021    
     15900   15654         -7.5921612     -8.1601483      0             -8.1601483      0              0              0              0              0              0              0              27.429193     -3.2631892     -10.85535       0.56798703    -8.1601483      38.109575      12020.183      199.77722      1.7681021    
     16000   15754         -8.1012439     -8.8559282      0             -8.8559282      0              0              0              0              0              0              0              23.761135     -2.7738576     -10.875101      0.75468438    -8.8559282      50.636194      10935.946      199.77722      1.7681021    
     16100   15854         -8.3981904     -8.9207093      0             -8.9207093      0              0              0              0              0              0              0              22.986999     -2.4927537     -10.890944      0.52251893    -8.9207093      35.058854      10772.163      199.77722      1.7681021    
     16200   15954         -8.2834931     -8.5924272      0             -8.5924272      0              0              0              0              0              0              0              24.500292     -2.6230587     -10.906552      0.30893413    -8.5924272      20.7282        11252.195      199.77722      1.7681021    
     16300   16054         -7.8514565     -8.4113497      0             -8.4113497      0              0              0              0              0              0              0              25.947558     -3.0725091     -10.923966      0.55989319    -8.4113497      37.566513      11600.646      199.77722      1.7681021    
     16400   16154         -7.6946039     -8.8359816      0             -8.8359816      0              0              0              0              0              0              0              24.526938     -3.2488505     -10.943454      1.1413777     -8.8359816      76.581714      11059.219      199.77722      1.7681021    
     16500   16254         -7.8837392     -8.8043052      0             -8.8043052      0              0              0              0              0              0              0              24.296956     -3.0787087     -10.962448      0.92056592    -8.8043052      61.766158      11045.199      199.77722      1.7681021    
     16600   16354         -8.1859397     -8.4862051      0             -8.4862051      0              0              0              0              0              0              0              25.134094     -2.794043      -10.979983      0.30026532    -8.4862051      20.146558      11436.248      199.77722      1.7681021    
     16700   16454         -8.3878144     -8.7518036      0             -8.7518036      0              0              0              0              0              0              0              23.691215     -2.6084179     -10.996232      0.36398922    -8.7518036      24.422168      11010.305      199.77722      1.7681021    
     16800   16554         -8.3528081     -8.9515039      0             -8.9515039      0              0              0              0              0              0              0              22.925039     -2.6588515     -11.01166       0.59869588    -8.9515039      40.170012      10735.32       199.77722      1.7681021    
     16900   16654         -7.8912749     -8.5192147      0             -8.5192147      0              0              0              0              0              0              0              25.52663      -3.137372      -11.028647      0.62793979    -8.5192147      42.132157      11469.84       199.77722      1.7681021    
     17000   16754         -7.5828118     -8.4039223      0             -8.4039223      0              0              0              0              0              0              0              26.448579     -3.4656613     -11.048473      0.82111048    -8.4039223      55.09311       11680.403      199.77722      1.7681021    
     17100   16854         -7.7779001     -8.5555934      0             -8.5555934      0              0              0              0              0              0              0              25.519884     -3.2904947     -11.068395      0.77769329    -8.5555934      52.179997      11428.612      199.77722      1.7681021    
     17200   16954         -7.9289156     -8.7918673      0             -8.7918673      0              0              0              0              0              0              0              24.255026     -3.1580735     -11.086989      0.86295163    -8.7918673      57.900478      11046.314      199.77722      1.7681021    
     17300   17054         -8.2097371     -8.5523363      0             -8.5523363      0              0              0              0              0              0              0              24.811848     -2.8946619     -11.104399      0.34259925    -8.5523363      22.98699       11333.814      199.77722      1.7681021    
     17400   17154         -8.3573412     -8.8093703      0             -8.8093703      0              0              0              0              0              0              0              23.515425     -2.7632529     -11.120594      0.45202915    -8.8093703      30.329282      10939.511      199.77722      1.7681021    
     17500   17254         -8.0842901     -8.8431331      0             -8.8431331      0              0              0              0              0              0              0              23.79362      -3.0524968     -11.136787      0.75884296    -8.8431331      50.915217      10941.276      199.77722      1.7681021    
     17600   17354         -7.5524008     -8.2617045      0             -8.2617045      0              0              0              0              0              0              0              27.064461     -3.6033861     -11.155787      0.70930369    -8.2617045      47.591338      11881.351      199.77722      1.7681021    
     17700   17454         -7.4520417     -8.3904037      0             -8.3904037      0              0              0              0              0              0              0              26.773238     -3.7248368     -11.176879      0.93836204    -8.3904037      62.960204      11746.951      199.77722      1.7681021    
     17800   17554         -7.9101556     -8.7673946      0             -8.7673946      0              0              0              0              0              0              0              24.454885     -3.2866523     -11.196808      0.85723902    -8.7673946      57.517185      11108.472      199.77722      1.7681021    
     17900   17654         -8.1223119     -8.9013152      0             -8.9013152      0              0              0              0              0              0              0              23.51076      -3.092039      -11.214351      0.77900339    -8.9013152      52.267899      10857.242      199.77722      1.7681021    
[...]
     94700   94454         -1.5895912     -5.5841263      0             -5.5841263      0              0              0              0              0              0              0              47.439223     -29.963229     -31.55282       3.9945351     -5.5841263      268.01675      16827.885      199.77722      1.7681021    
     94800   94554         -1.2703863     -4.2822587      0             -4.2822587      0              0              0              0              0              0              0              53.134608     -30.313962     -31.584348      3.0118724     -4.2822587      202.08415      18673.121      199.77722      1.7681021    
     94900   94654          1.4682333     -4.6019833      0             -4.6019833      0              0              0              0              0              0              0              56.418359     -33.085936     -31.617703      6.0702167     -4.6019833      407.28638      18860.223      199.77722      1.7681021    
     95000   94754          0.6434249     -4.3345426      0             -4.3345426      0              0              0              0              0              0              0              55.863757     -32.296042     -31.652617      4.9779675     -4.3345426      334.00099      18952.965      199.77722      1.7681021    
     95100   94854         -3.6981856     -7.4693323      0             -7.4693323      0              0              0              0              0              0              0              36.67271      -27.986153     -31.684339      3.7711468     -7.4693323      253.02832      13856.276      199.77722      1.7681021    
     95200   94954         -4.7081431     -6.9686275      0             -6.9686275      0              0              0              0              0              0              0              36.695487     -27.004709     -31.712852      2.2604844     -6.9686275      151.66913      14210.736      199.77722      1.7681021    
     95300   95054         -3.3396484     -6.1271979      0             -6.1271979      0              0              0              0              0              0              0              42.370067     -28.402133     -31.741781      2.7875495     -6.1271979      187.03302      15688.689      199.77722      1.7681021    
     95400   95154         -1.0621724     -5.9665697      0             -5.9665697      0              0              0              0              0              0              0              47.253977     -30.710443     -31.772616      4.9043973     -5.9665697      329.06473      16583.281      199.77722      1.7681021    
     95500   95254         -1.5873818     -6.5368152      0             -6.5368152      0              0              0              0              0              0              0              43.717245     -30.217654     -31.805036      4.9494333     -6.5368152      332.08646      15549.653      199.77722      1.7681021    
     95600   95354         -2.1711743     -5.4285867      0             -5.4285867      0              0              0              0              0              0              0              47.186183     -29.664901     -31.836075      3.2574124     -5.4285867      218.55887      16940.649      199.77722      1.7681021    
     95700   95454         -0.95046974    -7.0434099      0             -7.0434099      0              0              0              0              0              0              0              42.887187     -30.917233     -31.867703      6.0929401     -7.0434099      408.81103      15046.153      199.77722      1.7681021    
     95800   95554         -2.2090748     -4.7286546      0             -4.7286546      0              0              0              0              0              0              0              49.914613     -29.690383     -31.899458      2.5195798     -4.7286546      169.05336      17890.121      199.77722      1.7681021    
     95900   95654         -3.210591      -6.0639891      0             -6.0639891      0              0              0              0              0              0              0              42.906672     -28.719312     -31.929903      2.8533981     -6.0639891      191.45119      15828.569      199.77722      1.7681021    
     96000   95754         -2.5386213     -7.3878535      0             -7.3878535      0              0              0              0              0              0              0              38.829333     -29.421405     -31.960026      4.8492322     -7.3878535      325.36338      14198.491      199.77722      1.7681021    
     96100   95854         -0.55458421    -5.5750504      0             -5.5750504      0              0              0              0              0              0              0              49.321649     -31.436914     -31.991498      5.0204662     -5.5750504      336.85248      17118.74       199.77722      1.7681021    
     96200   95954          2.0105205     -3.8709513      0             -3.8709513      0              0              0              0              0              0              0              60.032341     -34.035908     -32.025387      5.8814718     -3.8709513      394.62238      19914.504      199.77722      1.7681021    
     96300   96054          0.91878122    -3.742925       0             -3.742925       0              0              0              0              0              0              0              59.010972     -32.9797       -32.060919      4.6617062     -3.742925       312.78117      19938.657      199.77722      1.7681021    
     96400   96154         -2.7181393     -6.4658206      0             -6.4658206      0              0              0              0              0              0              0              41.994085     -29.375184     -32.093324      3.7476813     -6.4658206      251.45389      15346.326      199.77722      1.7681021    
     96500   96254         -3.385403      -6.7078762      0             -6.7078762      0              0              0              0              0              0              0              40.107139     -28.737769     -32.123172      3.3224732     -6.7078762      222.92418      14927.701      199.77722      1.7681021    
     96600   96354         -2.7087145     -6.7608604      0             -6.7608604      0              0              0              0              0              0              0              41.033033     -29.444556     -32.15327       4.0521459     -6.7608604      271.8822       15013.235      199.77722      1.7681021    
     96700   96454         -0.59645806    -4.7594284      0             -4.7594284      0              0              0              0              0              0              0              52.499045     -31.587956     -32.184414      4.1629703     -4.7594284      279.31805      18223.672      199.77722      1.7681021    
     96800   96554          3.7887428     -4.4688341      0             -4.4688341      0              0              0              0              0              0              0              60.814644     -36.008545     -32.219802      8.2575769     -4.4688341      554.04919      19572.68       199.77722      1.7681021    
     96900   96654          1.3298408     -4.3528798      0             -4.3528798      0              0              0              0              0              0              0              57.118916     -33.585591     -32.25575       5.6827206     -4.3528798      381.287        19148.171      199.77722      1.7681021    
     97000   96754         -1.2581716     -5.7109029      0             -5.7109029      0              0              0              0              0              0              0              47.479086     -31.030876     -32.289048      4.4527313     -5.7109029      298.75981      16727.816      199.77722      1.7681021    
     97100   96854         -1.9397059     -4.5494822      0             -4.5494822      0              0              0              0              0              0              0              50.943855     -30.380665     -32.320371      2.6097764     -4.5494822      175.10518      18150.928      199.77722      1.7681021    
     97200   96954          0.33296672    -6.1369606      0             -6.1369606      0              0              0              0              0              0              0              48.636428     -32.685482     -32.352515      6.4699274     -6.1369606      434.10531      16578.926      199.77722      1.7681021    
     97300   97054          1.8040256     -4.6240481      0             -4.6240481      0              0              0              0              0              0              0              56.925623     -34.191114     -32.387088      6.4280736     -4.6240481      431.2971       18919.077      199.77722      1.7681021    
     97400   97154         -1.5219604     -4.5169721      0             -4.5169721      0              0              0              0              0              0              0              51.710704     -30.898797     -32.420758      2.9950117     -4.5169721      200.95287      18270.749      199.77722      1.7681021    
     97500   97254         -2.5814684     -7.3609614      0             -7.3609614      0              0              0              0              0              0              0              38.820764     -29.870411     -32.451879      4.779493      -7.3609614      320.68417      14210.256      199.77722      1.7681021    
     97600   97354         -4.0589574     -7.5373433      0             -7.5373433      0              0              0              0              0              0              0              35.70032      -28.422803     -32.48176       3.4783859     -7.5373433      233.38528      13646.354      199.77722      1.7681021    
     97700   97454         -4.5759777     -7.2598007      0             -7.2598007      0              0              0              0              0              0              0              35.936637     -27.934477     -32.510455      2.683823      -7.2598007      180.0734       13904.918      199.77722      1.7681021    
     97800   97554         -1.7576901     -6.0346687      0             -6.0346687      0              0              0              0              0              0              0              45.43624      -30.782271     -32.539961      4.2769786     -6.0346687      286.96754      16198.108      199.77722      1.7681021    
     97900   97654          0.74964339    -6.0424526      0             -6.0424526      0              0              0              0              0              0              0              49.569731     -33.322771     -32.573127      6.7920959     -6.0424526      455.72149      16756.245      199.77722      1.7681021    
     98000   97754         -0.90474001    -4.7862905      0             -4.7862905      0              0              0              0              0              0              0              52.017517     -31.701523     -32.606263      3.8815505     -4.7862905      260.43595      18164.209      199.77722      1.7681021    
     98100   97854         -2.608203      -6.9965833      0             -6.9965833      0              0              0              0              0              0              0              40.281686     -30.02971      -32.637913      4.3883804     -6.9965833      294.44213      14720.856      199.77722      1.7681021    
     98200   97954         -4.7172121     -7.3283071      0             -7.3283071      0              0              0              0              0              0              0              35.5622       -27.950203     -32.667415      2.6110949     -7.3283071      175.19365      13824.877      199.77722      1.7681021    
     98300   98054         -5.6050243     -7.3194967      0             -7.3194967      0              0              0              0              0              0              0              33.92955      -27.090254     -32.695278      1.7144724     -7.3194967      115.03399      13569.23       199.77722      1.7681021    
     98400   98154         -4.1726162     -7.8011576      0             -7.8011576      0              0              0              0              0              0              0              34.500958     -28.550465     -32.723082      3.6285413     -7.8011576      243.46009      13273.714      199.77722      1.7681021    
     98500   98254         -0.91014689    -6.0451552      0             -6.0451552      0              0              0              0              0              0              0              46.680721     -31.843941     -32.754088      5.1350083     -6.0451552      344.53778      16334.347      199.77722      1.7681021    
     98600   98354         -0.70386689    -4.5379905      0             -4.5379905      0              0              0              0              0              0              0              52.948393     -32.082679     -32.786546      3.8341236     -4.5379905      257.2538       18414.764      199.77722      1.7681021    
     98700   98454          0.62056717    -5.0417237      0             -5.0417237      0              0              0              0              0              0              0              53.099301     -33.440009     -32.819441      5.6622908     -5.0417237      379.91625      18011.982      199.77722      1.7681021    
     98800   98554          0.32548417    -4.5436042      0             -4.5436042      0              0              0              0              0              0              0              54.577641     -33.179329     -32.853845      4.8690884     -4.5436042      326.69565      18620.664      199.77722      1.7681021    
     98900   98654         -3.0063497     -6.7587511      0             -6.7587511      0              0              0              0              0              0              0              40.428225     -29.879349     -32.885699      3.7524014     -6.7587511      251.77058      14907.806      199.77722      1.7681021    
     99000   98754         -4.0907692     -7.2308609      0             -7.2308609      0              0              0              0              0              0              0              36.722989     -28.824412     -32.915181      3.1400916     -7.2308609      210.68713      14008.277      199.77722      1.7681021    
     99100   98854         -3.382522      -5.4947455      0             -5.4947455      0              0              0              0              0              0              0              44.798573     -29.561945     -32.944467      2.1122235     -5.4947455      141.72144      16536.927      199.77722      1.7681021    
     99200   98954         -1.3771568     -4.7259206      0             -4.7259206      0              0              0              0              0              0              0              50.889295     -31.597983     -32.97514       3.3487638     -4.7259206      224.68817      17939.121      199.77722      1.7681021    
     99300   99054         -0.84543304    -7.5344084      0             -7.5344084      0              0              0              0              0              0              0              41.156386     -32.162205     -33.007638      6.6889753     -7.5344084      448.80252      14416.049      199.77722      1.7681021    
     99400   99154         -3.0210271     -6.2595612      0             -6.2595612      0              0              0              0              0              0              0              42.287772     -30.017811     -33.038838      3.2385341     -6.2595612      217.29221      15551.085      199.77722      1.7681021    
     99500   99254         -2.8995374     -6.3747564      0             -6.3747564      0              0              0              0              0              0              0              42.160411     -30.169299     -33.068836      3.475219      -6.3747564      233.17279      15465.673      199.77722      1.7681021    
     99600   99354          0.3606729     -4.8575985      0             -4.8575985      0              0              0              0              0              0              0              54.117453     -33.461141     -33.100468      5.2182714     -4.8575985      350.12438      18450.638      199.77722      1.7681021    
     99700   99454          1.1658803     -4.5433673      0             -4.5433673      0              0              0              0              0              0              0              55.85292      -34.300889     -33.135009      5.7092476     -4.5433673      383.06685      18769.926      199.77722      1.7681021    
     99800   99554         -1.7654193     -4.551598       0             -4.551598       0              0              0              0              0              0              0              51.463784     -31.402635     -33.168054      2.7861787     -4.551598       186.94104      18269.561      199.77722      1.7681021    
     99900   99654         -4.3723896     -8.0330459      0             -8.0330459      0              0              0              0              0              0              0              33.227727     -28.82577      -33.19816       3.6606563     -8.0330459      245.61486      12905.277      199.77722      1.7681021    
    100000   99754         -4.1505572     -6.6723094      0             -6.6723094      0              0              0              0              0              0              0              39.091695     -29.076324     -33.226881      2.5217522     -6.6723094      169.19912      14841.796      199.77722      1.7681021    
    100100   99854         -2.139582      -5.7242532      0             -5.7242532      0              0              0              0              0              0              0              46.178266     -31.117187     -33.256769      3.5846712     -5.7242532      240.51658      16583.864      199.77722      1.7681021    
    100200   99954         -0.11102322    -5.77954        0             -5.77954        0              0              0              0              0              0              0              49.097414     -33.177774     -33.288797      5.6685168     -5.77954        380.33398      16889.536      199.77722      1.7681021    
    100246   100000         0.0033408324  -4.8268043      0             -4.8268043      0              0              0              0              0              0              0              53.208645     -33.307478     -33.304138      4.8301452     -4.8268043      324.08272      18261.358      199.77722      1.7681021    
Loop time of 3.89529 on 1 procs for 100000 steps with 6 atoms

Performance: 2218.061 ns/day, 0.011 hours/ns, 25672.006 timesteps/s, 154.032 katom-step/s
98.1% CPU use with 1 MPI tasks x 1 OpenMP threads

MPI task timing breakdown:
Section |  min time  |  avg time  |  max time  |%varavg| %total
---------------------------------------------------------------
Pair    | 2.3858     | 2.3858     | 2.3858     |   0.0 | 61.25
Bond    | 0.0080701  | 0.0080701  | 0.0080701  |   0.0 |  0.21
Neigh   | 0.022406   | 0.022406   | 0.022406   |   0.0 |  0.58
Comm    | 0.9292     | 0.9292     | 0.9292     |   0.0 | 23.85
Output  | 0.36069    | 0.36069    | 0.36069    |   0.0 |  9.26
Modify  | 0.082815   | 0.082815   | 0.082815   |   0.0 |  2.13
Other   |            | 0.1063     |            |       |  2.73

Nlocal:              6 ave           6 max           6 min
Histogram: 1 0 0 0 0 0 0 0 0 0
Nghost:           1594 ave        1594 max        1594 min
Histogram: 1 0 0 0 0 0 0 0 0 0
Neighs:           1580 ave        1580 max        1580 min
Histogram: 1 0 0 0 0 0 0 0 0 0

Total # of neighbors = 1580
Ave neighs/atom = 263.33333
Ave special neighs/atom = 0
Neighbor list builds = 242
Dangerous builds = 0
unfix                4
undump               1
Total wall time: 0:00:03
